   14
Geometry Step: 0
    S     -1.09391520      3.34582715      0.00000000      6.26599299
    S     -5.41846748     -1.29956749      0.00000000      6.26599308
    C     -3.67009875      2.35646292      0.00000000      4.10215496
    C     -2.30743613      2.05059938      0.00000000      3.91203935
    C     -1.89690443      0.71667602      0.00000000      4.08389215
    C     -2.84228268     -0.31020408      0.00000000      4.10215491
    C     -4.20494543     -0.00434048      0.00000000      3.91203934
    C     -4.61547692      1.32958284      0.00000000      4.08389211
    H     -5.67318153      1.56851649      0.00000000      0.91082613
    H     -4.00077620      3.38914789      0.00000000      0.92042679
    H     -2.51160526     -1.34288908      0.00000000      0.92042677
    H     -0.83919973      0.47774255      0.00000000      0.91082612
    H     -1.72114317      4.13419005      0.00000000      0.80466765
    H     -4.79124121     -2.08793166      0.00000000      0.80466764
   14
Geometry Step: 1
    S     -1.01363263      3.23999191     -0.00000000      6.21567953
    S     -5.49874985     -1.19373204      0.00000000      6.21567954
    C     -3.67389872      2.35398448     -0.00000000      4.10125548
    C     -2.30337715      2.05400793      0.00000000      3.91646213
    C     -1.89853404      0.71276706      0.00000000      4.08499879
    C     -2.83848274     -0.30772563     -0.00000000      4.10125544
    C     -4.20900437     -0.00774909      0.00000000      3.91646211
    C     -4.61384734      1.33349181      0.00000000      4.08499877
    H     -5.67599291      1.56937377     -0.00000000      0.91221209
    H     -4.00176564      3.39208106      0.00000000      0.92347315
    H     -2.51061582     -1.34582225      0.00000000      0.92347314
    H     -0.83638837      0.47688527     -0.00000000      0.91221209
    H     -1.80301832      4.23948876      0.00000000      0.84591886
    H     -4.70936623     -2.19323055     -0.00000000      0.84591889
   14
Geometry Step: 2
    S     -0.93335006      3.13415667     -0.00000000      6.16059140
    S     -5.57903222     -1.08789659      0.00000000      6.16059132
    C     -3.67769868      2.35150603     -0.00000000      4.09644116
    C     -2.29931818      2.05741649      0.00000000      3.92226388
    C     -1.90016366      0.70885811      0.00000000      4.08578716
    C     -2.83468280     -0.30524718     -0.00000000      4.09644113
    C     -4.21306330     -0.01115770      0.00000000      3.92226386
    C     -4.61221775      1.33740078      0.00000000      4.08578717
    H     -5.67880428      1.57023105     -0.00000000      0.91309237
    H     -4.00275508      3.39501423      0.00000000      0.92405840
    H     -2.50962638     -1.34875541      0.00000000      0.92405840
    H     -0.83357701      0.47602799     -0.00000000      0.91309237
    H     -1.88489347      4.34478747      0.00000000      0.89776565
    H     -4.62749124     -2.29852943     -0.00000000      0.89776572
   14
Geometry Step: 3
    S     -0.98089065      3.19682869     -0.00000000      6.19303842
    S     -5.53149174     -1.15056872      0.00000000      6.19303839
    C     -3.67544847      2.35297368     -0.00000000      4.09973370
    C     -2.30172176      2.05539806      0.00000000      3.91871918
    C     -1.89919866      0.71117286      0.00000000      4.08542361
    C     -2.83693300     -0.30671483     -0.00000000      4.09973367
    C     -4.21065974     -0.00913924      0.00000000      3.91871916
    C     -4.61318274      1.33508602      0.00000000      4.08542360
    H     -5.67713948      1.56972339     -0.00000000      0.91265528
    H     -4.00216916      3.39327730      0.00000000      0.92401714
    H     -2.51021229     -1.34701849      0.00000000      0.92401713
    H     -0.83524180      0.47653564     -0.00000000      0.91265528
    H     -1.83640980      4.28243317      0.00000000      0.86641270
    H     -4.67597481     -2.23617503     -0.00000000      0.86641274
   14
Geometry Step: 4
    S     -1.01524803      3.23797661     -0.00000000      6.21445468
    S     -5.49713459     -1.19171730     -0.00000000      6.21445503
    C     -3.63479545      2.42365507     -0.00000000      4.12645652
    C     -2.24846474      1.95273593      0.00000000      3.89222793
    C     -1.91924698      0.68267972      0.00000000      4.07153123
    C     -2.87758600     -0.37739639     -0.00000000      4.12645645
    C     -4.26391628      0.09352304      0.00000000      3.89222794
    C     -4.59313438      1.36357912      0.00000000      4.07153105
    H     -5.71525855      1.59156564     -0.00000000      0.92599069
    H     -4.01784956      3.43901708     -0.00000000      0.90077064
    H     -2.49453195     -1.39275809      0.00000000      0.90077055
    H     -0.79712316      0.45469337     -0.00000000      0.92599067
    H     -1.83396042      4.38826862      0.00000000      0.86856837
    H     -4.67842401     -2.34200992     -0.00000000      0.86856825
   14
Geometry Step: 5
    S     -0.98672332      3.20381414     -0.00000000      6.19608426
    S     -5.52565912     -1.15755429     -0.00000000      6.19608430
    C     -3.66854703      2.36497287     -0.00000000      4.10453096
    C     -2.29268061      2.03796967      0.00000000      3.91430366
    C     -1.90260215      0.70633573      0.00000000      4.08263828
    C     -2.84383443     -0.31871406     -0.00000000      4.10453093
    C     -4.21970081      0.00828918      0.00000000      3.91430364
    C     -4.60977924      1.33992314      0.00000000      4.08263825
    H     -5.68361075      1.57343143     -0.00000000      0.91504242
    H     -4.00483114      3.40104230      0.00000000      0.92018626
    H     -2.50755033     -1.35478345      0.00000000      0.92018625
    H     -0.82877060      0.47282760     -0.00000000      0.91504242
    H     -1.83599398      4.30040028      0.00000000      0.86721417
    H     -4.67639060     -2.25414204     -0.00000000      0.86721419
   14
Geometry Step: 6
    S     -1.00094250      3.22209984     -0.00000000      6.20218576
    S     -5.51143997     -1.17584006     -0.00000000      6.20218582
    C     -3.66077823      2.36615737     -0.00000000      4.09772225
    C     -2.29481342      2.03972463      0.00000000      3.91575357
    C     -1.90043126      0.68744051      0.00000000      4.08700273
    C     -2.85160320     -0.31989854     -0.00000000      4.09772221
    C     -4.21756802      0.00653422      0.00000000      3.91575357
    C     -4.61195014      1.35881837      0.00000000      4.08700271
    H     -5.68518661      1.57646591     -0.00000000      0.91235959
    H     -4.00578267      3.40841048      0.00000000      0.92346811
    H     -2.50659879     -1.36215163      0.00000000      0.92346809
    H     -0.82719477      0.46979311     -0.00000000      0.91235960
    H     -1.82583286      4.30215534      0.00000000      0.86150799
    H     -4.68655165     -2.25589702     -0.00000000      0.86150798
   14
Geometry Step: 7
    S     -1.02394963      3.25168672     -0.00000000      6.21197181
    S     -5.48843290     -1.20542706     -0.00000000      6.21197190
    C     -3.64820806      2.36807392     -0.00000000      4.08671767
    C     -2.29826437      2.04256420      0.00000000      3.91870988
    C     -1.89691869      0.65686739      0.00000000      4.09357012
    C     -2.86417333     -0.32181509     -0.00000000      4.08671763
    C     -4.21411708      0.00369463      0.00000000      3.91870990
    C     -4.61546274      1.38939149      0.00000000      4.09357011
    H     -5.68773640      1.58137580     -0.00000000      0.90792347
    H     -4.00732228      3.42033245      0.00000000      0.92867960
    H     -2.50505918     -1.37407360      0.00000000      0.92867958
    H     -0.82464503      0.46488320     -0.00000000      0.90792347
    H     -1.80939182      4.30499509      0.00000000      0.85242745
    H     -4.70299259     -2.25873663     -0.00000000      0.85242743
   14
Geometry Step: 8
    S     -1.00310122      3.22487593     -0.00000000      6.20310865
    S     -5.50928125     -1.17861616     -0.00000000      6.20310871
    C     -3.65959880      2.36633720     -0.00000000      4.09668921
    C     -2.29513721      2.03999106      0.00000000      3.91599884
    C     -1.90010169      0.68457188      0.00000000      4.08764489
    C     -2.85278263     -0.32007837     -0.00000000      4.09668917
    C     -4.21724422      0.00626778      0.00000000      3.91599884
    C     -4.61227972      1.36168699      0.00000000      4.08764486
    H     -5.68542585      1.57692660     -0.00000000      0.91194877
    H     -4.00592713      3.40952910      0.00000000      0.92396252
    H     -2.50645434     -1.36327025      0.00000000      0.92396250
    H     -0.82695554      0.46933242     -0.00000000      0.91194878
    H     -1.82429022      4.30242179      0.00000000      0.86064713
    H     -4.68809428     -2.25616345     -0.00000000      0.86064712
   14
Geometry Step: 9
    S     -1.02174159      3.24666199     -0.00000000      6.21272850
    S     -5.49064092     -1.20040225     -0.00000000      6.21272854
    C     -3.65867131      2.37825091     -0.00000000      4.10357137
    C     -2.28588068      2.02797257      0.00000000      3.91155594
    C     -1.89903600      0.68433088      0.00000000      4.08497555
    C     -2.85371013     -0.33199207     -0.00000000      4.10357133
    C     -4.22650081      0.01828625      0.00000000      3.91155594
    C     -4.61334542      1.36192799      0.00000000      4.08497554
    H     -5.68763321      1.58481728     -0.00000000      0.91327611
    H     -4.00265861      3.41669065      0.00000000      0.91941600
    H     -2.50972284     -1.37043182      0.00000000      0.91941599
    H     -0.82474820      0.46144171     -0.00000000      0.91327610
    H     -1.81192470      4.30837010      0.00000000      0.85447655
    H     -4.70045967     -2.26211168     -0.00000000      0.85447654
   14
Geometry Step: 10
    S     -1.01312387      3.23658997     -0.00000000      6.20822754
    S     -5.49925862     -1.19033022     -0.00000000      6.20822759
    C     -3.65910010      2.37274302     -0.00000000      4.10042910
    C     -2.29016011      2.03352889      0.00000000      3.91361341
    C     -1.89952868      0.68444230      0.00000000      4.08619818
    C     -2.85328134     -0.32648419     -0.00000000      4.10042906
    C     -4.22222135      0.01272994      0.00000000      3.91361341
    C     -4.61285273      1.36181657      0.00000000      4.08619816
    H     -5.68661271      1.58116930     -0.00000000      0.91267457
    H     -4.00416970      3.41337976      0.00000000      0.92151320
    H     -2.50821176     -1.36712092      0.00000000      0.92151318
    H     -0.82576868      0.46508970     -0.00000000      0.91267457
    H     -1.81764147      4.30562011      0.00000000      0.85734402
    H     -4.69474296     -2.25936173     -0.00000000      0.85734401
   14
Geometry Step: 11
    S     -1.01629838      3.23903205     -0.00000000      6.20738249
    S     -5.49608410     -1.19277228     -0.00000000      6.20738252
    C     -3.65964114      2.37354681     -0.00000000      4.10119776
    C     -2.28962265      2.03168326      0.00000000      3.91237773
    C     -1.89988721      0.68609537      0.00000000      4.08493143
    C     -2.85274037     -0.32728799     -0.00000000      4.10119773
    C     -4.22275886      0.01457558      0.00000000      3.91237771
    C     -4.61249422      1.36016349      0.00000000      4.08493140
    H     -5.68744344      1.58962138     -0.00000000      0.91359348
    H     -3.99848290      3.41910274      0.00000000      0.92140356
    H     -2.51389855     -1.37284391      0.00000000      0.92140355
    H     -0.82493796      0.45663760     -0.00000000      0.91359347
    H     -1.81804246      4.32225366      0.00000000      0.85911358
    H     -4.69434186     -2.27599525     -0.00000000      0.85911358
   14
Geometry Step: 12
    S     -1.02143484      3.24298343     -0.00000000      6.20608625
    S     -5.49094762     -1.19672361     -0.00000000      6.20608625
    C     -3.66051657      2.37484736     -0.00000000      4.10244790
    C     -2.28875302      2.02869695      0.00000000      3.91040859
    C     -1.90046732      0.68877010      0.00000000      4.08288082
    C     -2.85186506     -0.32858856     -0.00000000      4.10244789
    C     -4.22362856      0.01756188      0.00000000      3.91040855
    C     -4.61191413      1.35748874     -0.00000000      4.08288078
    H     -5.68878759      1.60329714     -0.00000000      0.91506079
    H     -3.98928147      3.42836272      0.00000000      0.92118968
    H     -2.52309997     -1.38210391      0.00000000      0.92118968
    H     -0.82359382      0.44296180     -0.00000000      0.91506078
    H     -1.81869127      4.34916731      0.00000000      0.86192601
    H     -4.69369286     -2.30290884     -0.00000000      0.86192603
   14
Geometry Step: 13
    S     -1.01950085      3.24149564     -0.00000000      6.20656442
    S     -5.49288162     -1.19523584     -0.00000000      6.20656443
    C     -3.66018695      2.37435767     -0.00000000      4.10197642
    C     -2.28908046      2.02982136      0.00000000      3.91114548
    C     -1.90024890      0.68776300      0.00000000      4.08365301
    C     -2.85219464     -0.32809887     -0.00000000      4.10197640
    C     -4.22330110      0.01643747      0.00000000      3.91114545
    C     -4.61213255      1.35849585     -0.00000000      4.08365297
    H     -5.68828148      1.59814790     -0.00000000      0.91451102
    H     -3.99274602      3.42487612      0.00000000      0.92127544
    H     -2.51963542     -1.37861731      0.00000000      0.92127544
    H     -0.82409992      0.44811105     -0.00000000      0.91451101
    H     -1.81844698      4.33903370      0.00000000      0.86087426
    H     -4.69393723     -2.29277525     -0.00000000      0.86087427
   14
Geometry Step: 14
    S     -1.02796238      3.25177327     -0.00000000      6.20532046
    S     -5.48442005     -1.20551351     -0.00000000      6.20532047
    C     -3.65868929      2.37343078     -0.00000000      4.09711542
    C     -2.29458155      2.03725219      0.00000000      3.91206433
    C     -1.89591030      0.67897983      0.00000000      4.08690695
    C     -2.85369233     -0.32717198     -0.00000000      4.09711541
    C     -4.21780008      0.00900663      0.00000000      3.91206430
    C     -4.61647125      1.36727901     -0.00000000      4.08690695
    H     -5.68650108      1.61449279     -0.00000000      0.91224918
    H     -3.97975789      3.43348337     -0.00000000      0.92386479
    H     -2.53262356     -1.38722456     -0.00000000      0.92386478
    H     -0.82588035      0.43176612     -0.00000000      0.91224919
    H     -1.81637111      4.36881009      0.00000000      0.86247888
    H     -4.69601288     -2.32255151     -0.00000000      0.86247889
   14
Geometry Step: 15
    S     -1.02525259      3.24848187     -0.00000000      6.20571766
    S     -5.48712986     -1.20222210     -0.00000000      6.20571766
    C     -3.65916892      2.37372762     -0.00000000      4.09866044
    C     -2.29281983      2.03487248      0.00000000      3.91178140
    C     -1.89729973      0.68179263      0.00000000      4.08585930
    C     -2.85321269     -0.32746882     -0.00000000      4.09866042
    C     -4.21956177      0.01138634      0.00000000      3.91178137
    C     -4.61508179      1.36446621     -0.00000000      4.08585929
    H     -5.68707125      1.60925836     -0.00000000      0.91297447
    H     -3.98391733      3.43072691     -0.00000000      0.92303745
    H     -2.52846412     -1.38446810     -0.00000000      0.92303745
    H     -0.82531017      0.43700056     -0.00000000      0.91297447
    H     -1.81703590      4.35927424      0.00000000      0.86196930
    H     -4.69534815     -2.31301570     -0.00000000      0.86196931
   14
Geometry Step: 16
    S     -1.03506916      3.26463201     -0.00000000      6.20979614
    S     -5.47731327     -1.21837238     -0.00000000      6.20979618
    C     -3.66077752      2.37781311     -0.00000000      4.10056956
    C     -2.29157471      2.03517193      0.00000000      3.91132007
    C     -1.89465150      0.67996212      0.00000000      4.08580499
    C     -2.85160403     -0.33155431     -0.00000000      4.10056955
    C     -4.22080692      0.01108689      0.00000000      3.91132006
    C     -4.61773010      1.36629672     -0.00000000      4.08580501
    H     -5.68406862      1.61953280     -0.00000000      0.91233865
    H     -3.97319999      3.43039871     -0.00000000      0.92087997
    H     -2.53918149     -1.38413988     -0.00000000      0.92087995
    H     -0.82831288      0.42672609     -0.00000000      0.91233867
    H     -1.81058044      4.37177299     -0.00000000      0.85929061
    H     -4.70180348     -2.32551430      0.00000000      0.85929059
   14
Geometry Step: 17
    S     -1.03421340      3.26322412     -0.00000000      6.20943645
    S     -5.47816903     -1.21696448     -0.00000000      6.20943649
    C     -3.66063729      2.37745695     -0.00000000      4.10040426
    C     -2.29168325      2.03514583      0.00000000      3.91136035
    C     -1.89488236      0.68012169      0.00000000      4.08581076
    C     -2.85174427     -0.33119815     -0.00000000      4.10040425
    C     -4.22069837      0.01111299      0.00000000      3.91136033
    C     -4.61749923      1.36613715     -0.00000000      4.08581078
    H     -5.68433038      1.61863712     -0.00000000      0.91239468
    H     -3.97413428      3.43042732     -0.00000000      0.92106736
    H     -2.53824720     -1.38416849     -0.00000000      0.92106734
    H     -0.82805112      0.42762177     -0.00000000      0.91239470
    H     -1.81114319      4.37068341     -0.00000000      0.85952613
    H     -4.70124073     -2.32442473      0.00000000      0.85952611
   14
Geometry Step: 18
    S     -1.03922156      3.27711322      0.00000000      6.21322676
    S     -5.47316088     -1.23085369     -0.00000000      6.21322683
    C     -3.65565318      2.36845846     -0.00000000      4.09938759
    C     -2.28973233      2.02985160      0.00000000      3.90993789
    C     -1.90211065      0.68554240      0.00000000      4.08195335
    C     -2.85672853     -0.32219967     -0.00000000      4.09938758
    C     -4.22264924      0.01640725      0.00000000      3.90993788
    C     -4.61027081      1.36071644      0.00000000      4.08195325
    H     -5.68432252      1.62637006     -0.00000000      0.91531226
    H     -3.96589642      3.43005489     -0.00000000      0.92295696
    H     -2.54648511     -1.38379606      0.00000000      0.92295696
    H     -0.82805915      0.41988883     -0.00000000      0.91531220
    H     -1.80729307      4.38068174     -0.00000000      0.85722525
    H     -4.70509065     -2.33442298     -0.00000000      0.85722523
   14
Geometry Step: 19
    S     -1.03580776      3.26764574     -0.00000000      6.21063992
    S     -5.47657468     -1.22138614     -0.00000000      6.21063997
    C     -3.65905059      2.37459226     -0.00000000      4.10008269
    C     -2.29106217      2.03346040      0.00000000      3.91090474
    C     -1.89718350      0.68184738      0.00000000      4.08458906
    C     -2.85333102     -0.32833347     -0.00000000      4.10008267
    C     -4.22131943      0.01279843      0.00000000      3.91090472
    C     -4.61519805      1.36441146     -0.00000000      4.08458904
    H     -5.68432788      1.62109892     -0.00000000      0.91331644
    H     -3.97151174      3.43030876     -0.00000000      0.92166985
    H     -2.54086975     -1.38404993      0.00000000      0.92166983
    H     -0.82805368      0.42515998     -0.00000000      0.91331643
    H     -1.80991750      4.37386640     -0.00000000      0.85879733
    H     -4.70246636     -2.32760769     -0.00000000      0.85879731
   14
Geometry Step: 20
    S     -1.03528740      3.26977356      0.00000000      6.20995030
    S     -5.47709504     -1.22351396     -0.00000000      6.20995034
    C     -3.65531593      2.37103387     -0.00000000      4.09904931
    C     -2.28995832      2.03513183      0.00000000      3.91059756
    C     -1.89689906      0.68208327      0.00000000      4.08552361
    C     -2.85706568     -0.32477505     -0.00000000      4.09904929
    C     -4.22242329      0.01112699      0.00000000      3.91059755
    C     -4.61548252      1.36417558     -0.00000000      4.08552360
    H     -5.68293198      1.62249662     -0.00000000      0.91286159
    H     -3.96885909      3.42826950     -0.00000000      0.92288363
    H     -2.54352243     -1.38201068      0.00000000      0.92288363
    H     -0.82944960      0.42376226     -0.00000000      0.91286160
    H     -1.81057269      4.37808764     -0.00000000      0.85913400
    H     -4.70181107     -2.33182893     -0.00000000      0.85913399
   14
Geometry Step: 21
    S     -1.03530002      3.26972194      0.00000000      6.20996704
    S     -5.47708241     -1.22346234     -0.00000000      6.20996708
    C     -3.65540654      2.37112020     -0.00000000      4.09907440
    C     -2.28998510      2.03509128      0.00000000      3.91060499
    C     -1.89690596      0.68207755      0.00000000      4.08550100
    C     -2.85697507     -0.32486139     -0.00000000      4.09907438
    C     -4.22239651      0.01116754      0.00000000      3.91060498
    C     -4.61547562      1.36418130     -0.00000000      4.08550098
    H     -5.68296585      1.62246271     -0.00000000      0.91287263
    H     -3.96892345      3.42831898     -0.00000000      0.92285410
    H     -2.54345807     -1.38206015      0.00000000      0.92285410
    H     -0.82941573      0.42379617     -0.00000000      0.91287263
    H     -1.81055679      4.37798523     -0.00000000      0.85912584
    H     -4.70182696     -2.33172652     -0.00000000      0.85912584
   14
Geometry Step: 22
    S     -1.03445628      3.27177438      0.00000000      6.20886064
    S     -5.47792614     -1.22551480     -0.00000000      6.20886066
    C     -3.65417223      2.36950962     -0.00000000      4.09978197
    C     -2.28620832      2.03601957      0.00000000      3.91068492
    C     -1.89673412      0.68277794      0.00000000      4.08543028
    C     -2.85820939     -0.32325079     -0.00000000      4.09978196
    C     -4.22617332      0.01023926     -0.00000000      3.91068492
    C     -4.61564749      1.36348091      0.00000000      4.08543028
    H     -5.68147275      1.62371836     -0.00000000      0.91296034
    H     -3.96599821      3.42487409     -0.00000000      0.92275081
    H     -2.54638335     -1.37861526      0.00000000      0.92275080
    H     -0.83090885      0.42254051     -0.00000000      0.91296035
    H     -1.81146384      4.38196751     -0.00000000      0.85953105
    H     -4.70091981     -2.33570879      0.00000000      0.85953105
   14
Geometry Step: 23
    S     -1.03309108      3.27509531      0.00000000      6.20708231
    S     -5.47929131     -1.22883576     -0.00000000      6.20708231
    C     -3.65217506      2.36690363      0.00000000      4.10093673
    C     -2.28009737      2.03752157     -0.00000000      3.91081571
    C     -1.89645609      0.68391120      0.00000000      4.08530329
    C     -2.86020657     -0.32064480     -0.00000000      4.10093672
    C     -4.23228432      0.00873727     -0.00000000      3.91081572
    C     -4.61592559      1.36234767      0.00000000      4.08530330
    H     -5.67905687      1.62575004     -0.00000000      0.91310219
    H     -3.96126506      3.41930013     -0.00000000      0.92257349
    H     -2.55111655     -1.37304130      0.00000000      0.92257348
    H     -0.83332476      0.42050881     -0.00000000      0.91310221
    H     -1.81293147      4.38841097     -0.00000000      0.86018626
    H     -4.69945200     -2.34215225      0.00000000      0.86018627
   14
Geometry Step: 24
    S     -1.03418890      3.27242482      0.00000000      6.20851117
    S     -5.47819352     -1.22616524     -0.00000000      6.20851119
    C     -3.65378106      2.36899921      0.00000000      4.10000721
    C     -2.28501144      2.03631375      0.00000000      3.91071043
    C     -1.89667967      0.68299990      0.00000000      4.08540655
    C     -2.85860056     -0.32274039     -0.00000000      4.10000720
    C     -4.22737021      0.00994508     -0.00000000      3.91071042
    C     -4.61570196      1.36325896      0.00000000      4.08540656
    H     -5.68099958      1.62411628     -0.00000000      0.91298810
    H     -3.96507118      3.42378238     -0.00000000      0.92271710
    H     -2.54731039     -1.37752355      0.00000000      0.92271709
    H     -0.83138203      0.42214259     -0.00000000      0.91298811
    H     -1.81175129      4.38322952     -0.00000000      0.85965944
    H     -4.70063232     -2.33697080      0.00000000      0.85965944
   14
Geometry Step: 25
    S     -1.03331642      3.28046472      0.00000000      6.21002489
    S     -5.47906589     -1.23420528     -0.00000000      6.21002496
    C     -3.65295657      2.36845097      0.00000000      4.10015123
    C     -2.28334783      2.03604335     -0.00000000      3.91158269
    C     -1.89876513      0.68242311      0.00000000      4.08413549
    C     -2.85942521     -0.32219219     -0.00000000      4.10015124
    C     -4.22903386      0.01021558      0.00000000      3.91158265
    C     -4.61361644      1.36383573     -0.00000000      4.08413541
    H     -5.68156139      1.62672174      0.00000000      0.91393833
    H     -3.96206280      3.41895451     -0.00000000      0.92188250
    H     -2.55031882     -1.37269566     -0.00000000      0.92188248
    H     -0.83082027      0.41953713      0.00000000      0.91393829
    H     -1.81114584      4.38340592     -0.00000000      0.85828494
    H     -4.70123762     -2.33714712     -0.00000000      0.85828490
   14
Geometry Step: 26
    S     -1.03390232      3.27506563      0.00000000      6.20901123
    S     -5.47848006     -1.22880610     -0.00000000      6.20901127
    C     -3.65351025      2.36881913      0.00000000      4.10005416
    C     -2.28446500      2.03622493     -0.00000000      3.91099560
    C     -1.89736467      0.68281045      0.00000000      4.08499039
    C     -2.85887143     -0.32256032     -0.00000000      4.10005415
    C     -4.22791666      0.01003393     -0.00000000      3.91099558
    C     -4.61501694      1.36344841     -0.00000000      4.08499036
    H     -5.68118411      1.62497208     -0.00000000      0.91329949
    H     -3.96408303      3.42219660     -0.00000000      0.92244332
    H     -2.54829855     -1.37593776      0.00000000      0.92244331
    H     -0.83119751      0.42128679     -0.00000000      0.91329949
    H     -1.81155242      4.38328746     -0.00000000      0.85920583
    H     -4.70083114     -2.33702872     -0.00000000      0.85920582
   14
Geometry Step: 27
    S     -1.03333658      3.27728871      0.00000000      6.20961867
    S     -5.47904576     -1.23102922     -0.00000000      6.20961870
    C     -3.65164144      2.36830638      0.00000000      4.09949832
    C     -2.28507831      2.03676455     -0.00000000      3.91076107
    C     -1.89640998      0.68254878      0.00000000      4.08568086
    C     -2.86074022     -0.32204751      0.00000000      4.09949830
    C     -4.22730338      0.00949428      0.00000000      3.91076106
    C     -4.61597173      1.36371009     -0.00000000      4.08568089
    H     -5.68116577      1.62608037     -0.00000000      0.91277350
    H     -3.96371311      3.42179403     -0.00000000      0.92277095
    H     -2.54866850     -1.37553519     -0.00000000      0.92277095
    H     -0.83121585      0.42017849     -0.00000000      0.91277353
    H     -1.81183002      4.38322038     -0.00000000      0.85889660
    H     -4.70055346     -2.33696162     -0.00000000      0.85889659
   14
Geometry Step: 28
    S     -1.03373467      3.27572440      0.00000000      6.20919148
    S     -5.47864770     -1.22946488     -0.00000000      6.20919151
    C     -3.65295646      2.36866719      0.00000000      4.09988928
    C     -2.28464674      2.03638484     -0.00000000      3.91092592
    C     -1.89708176      0.68273291      0.00000000      4.08519519
    C     -2.85942521     -0.32240836     -0.00000000      4.09988927
    C     -4.22773493      0.00987401     -0.00000000      3.91092591
    C     -4.61529987      1.36352595     -0.00000000      4.08519518
    H     -5.68117868      1.62530050     -0.00000000      0.91314351
    H     -3.96397341      3.42207730     -0.00000000      0.92254057
    H     -2.54840818     -1.37581847     -0.00000000      0.92254056
    H     -0.83120295      0.42095837     -0.00000000      0.91314352
    H     -1.81163468      4.38326758     -0.00000000      0.85911405
    H     -4.70074885     -2.33700883     -0.00000000      0.85911404
   14
Geometry Step: 29
    S     -1.03346923      3.27613305      0.00000000      6.20913386
    S     -5.47891313     -1.22987354     -0.00000000      6.20913389
    C     -3.65283169      2.36841284      0.00000000      4.09986897
    C     -2.28424339      2.03637038     -0.00000000      3.91094268
    C     -1.89680135      0.68277134      0.00000000      4.08517089
    C     -2.85954997     -0.32215401      0.00000000      4.09986896
    C     -4.22813829      0.00988847      0.00000000      3.91094267
    C     -4.61558031      1.36348752     -0.00000000      4.08517090
    H     -5.68121507      1.62585697     -0.00000000      0.91309947
    H     -3.96397296      3.42226845     -0.00000000      0.92266092
    H     -2.54840865     -1.37600961     -0.00000000      0.92266091
    H     -0.83116656      0.42040189      0.00000000      0.91309948