   14
Geometry Step: 68
    S     -1.03522695      3.27820962      0.00000000      6.20879199
    S     -5.47715511     -1.23195061      0.00000000      6.20879195
    C     -3.65087961      2.36823371     -0.00000000      4.09999310
    C     -2.28237352      2.03498659      0.00000000      3.91095215
    C     -1.89660271      0.68077091      0.00000000      4.08512207
    C     -2.86150222     -0.32197463     -0.00000000      4.09999302
    C     -4.23000842      0.01127217     -0.00000000      3.91095219
    C     -4.61577952      1.36548805      0.00000000      4.08512225
    H     -5.68049251      1.63264010     -0.00000000      0.91313112
    H     -3.96020713      3.42259120      0.00000000      0.92279320
    H     -2.55217485     -1.37633231      0.00000000      0.92279325
    H     -0.83188938      0.41361880      0.00000000      0.91313124
    H     -1.82078954      4.38106574     -0.00000000      0.85921623
    H     -4.69159264     -2.33480683     -0.00000000      0.85921624
